TITLE="1D result"
ZONES"
VARIABLES = "X", "Y", "U"
ZONE T="2-D Domain", F=POINT,
0  0  0
0.001  0  0.00622055
0.002  0  0.0124409
0.003  0  0.0186609
0.004  0  0.0248803
0.005  0  0.0310989
0.006  0  0.0373165
0.007  0  0.0435329
0.008  0  0.049748
0.009  0  0.0559615
0.01  0  0.0621733
0.011  0  0.0683831
0.012  0  0.0745907
0.013  0  0.080796
0.014  0  0.0869988
0.015  0  0.0931988
0.016  0  0.099396
0.017  0  0.10559
0.018  0  0.111781
0.019  0  0.117968
0.02  0  0.124151
0.021  0  0.130331
0.022  0  0.136507
0.023  0  0.142678
0.024  0  0.148845
0.025  0  0.155007
0.026  0  0.161164
0.027  0  0.167317
0.028  0  0.173464
0.029  0  0.179605
0.03  0  0.185742
0.031  0  0.191872
0.032  0  0.197996
0.033  0  0.204115
0.034  0  0.210227
0.035  0  0.216332
0.036  0  0.222431
0.037  0  0.228523
0.038  0  0.234608
0.039  0  0.240686
0.04  0  0.246756
0.041  0  0.252819
0.042  0  0.258874
0.043  0  0.264921
0.044  0  0.27096
0.045  0  0.27699
0.046  0  0.283012
0.047  0  0.289026
0.048  0  0.295031
0.049  0  0.301027
0.05  0  0.307013
0.051  0  0.312991
0.052  0  0.318959
0.053  0  0.324917
0.054  0  0.330865
0.055  0  0.336804
0.056  0  0.342732
0.057  0  0.34865
0.058  0  0.354558
0.059  0  0.360455
0.06  0  0.366342
0.061  0  0.372217
0.062  0  0.378081
0.063  0  0.383935
0.064  0  0.389776
0.065  0  0.395607
0.066  0  0.401425
0.067  0  0.407232
0.068  0  0.413027
0.069  0  0.418809
0.07  0  0.42458
0.071  0  0.430338
0.072  0  0.436083
0.073  0  0.441816
0.074  0  0.447536
0.075  0  0.453243
0.076  0  0.458937
0.077  0  0.464618
0.078  0  0.470285
0.079  0  0.475939
0.08  0  0.48158
0.081  0  0.487206
0.082  0  0.492819
0.083  0  0.498418
0.084  0  0.504002
0.085  0  0.509573
0.086  0  0.515129
0.087  0  0.52067
0.088  0  0.526197
0.089  0  0.531709
0.09  0  0.537207
0.091  0  0.542689
0.092  0  0.548157
0.093  0  0.553609
0.094  0  0.559046
0.095  0  0.564468
0.096  0  0.569874
0.097  0  0.575265
0.098  0  0.58064
0.099  0  0.585999
0.1  0  0.591343
0.101  0  0.59667
0.102  0  0.601982
0.103  0  0.607277
0.104  0  0.612556
0.105  0  0.617819
0.106  0  0.623065
0.107  0  0.628295
0.108  0  0.633508
0.109  0  0.638705
0.11  0  0.643885
0.111  0  0.649048
0.112  0  0.654194
0.113  0  0.659323
0.114  0  0.664435
0.115  0  0.669531
0.116  0  0.674609
0.117  0  0.679669
0.118  0  0.684713
0.119  0  0.689739
0.12  0  0.694747
0.121  0  0.699738
0.122  0  0.704712
0.123  0  0.709668
0.124  0  0.714606
0.125  0  0.719527
0.126  0  0.72443
0.127  0  0.729315
0.128  0  0.734182
0.129  0  0.739031
0.13  0  0.743862
0.131  0  0.748675
0.132  0  0.753471
0.133  0  0.758248
0.134  0  0.763007
0.135  0  0.767748
0.136  0  0.77247
0.137  0  0.777175
0.138  0  0.781861
0.139  0  0.786529
0.14  0  0.791179
0.141  0  0.79581
0.142  0  0.800423
0.143  0  0.805017
0.144  0  0.809593
0.145  0  0.814151
0.146  0  0.81869
0.147  0  0.823211
0.148  0  0.827713
0.149  0  0.832197
0.15  0  0.836663
0.151  0  0.841109
0.152  0  0.845538
0.153  0  0.849947
0.154  0  0.854339
0.155  0  0.858711
0.156  0  0.863066
0.157  0  0.867401
0.158  0  0.871718
0.159  0  0.876017
0.16  0  0.880297
0.161  0  0.884559
0.162  0  0.888802
0.163  0  0.893026
0.164  0  0.897232
0.165  0  0.90142
0.166  0  0.905589
0.167  0  0.90974
0.168  0  0.913872
0.169  0  0.917986
0.17  0  0.922081
0.171  0  0.926158
0.172  0  0.930217
0.173  0  0.934257
0.174  0  0.938279
0.175  0  0.942283
0.176  0  0.946269
0.177  0  0.950236
0.178  0  0.954185
0.179  0  0.958116
0.18  0  0.962029
0.181  0  0.965924
0.182  0  0.9698
0.183  0  0.973659
0.184  0  0.9775
0.185  0  0.981322
0.186  0  0.985127
0.187  0  0.988914
0.188  0  0.992683
0.189  0  0.996434
0.19  0  1.00017
0.191  0  1.00388
0.192  0  1.00758
0.193  0  1.01126
0.194  0  1.01493
0.195  0  1.01857
0.196  0  1.0222
0.197  0  1.02581
0.198  0  1.0294
0.199  0  1.03298
0.2  0  1.03654
0.201  0  1.04008
0.202  0  1.04361
0.203  0  1.04711
0.204  0  1.0506
0.205  0  1.05408
0.206  0  1.05753
0.207  0  1.06097
0.208  0  1.0644
0.209  0  1.0678
0.21  0  1.07119
0.211  0  1.07457
0.212  0  1.07792
0.213  0  1.08127
0.214  0  1.08459
0.215  0  1.0879
0.216  0  1.09119
0.217  0  1.09447
0.218  0  1.09772
0.219  0  1.10097
0.22  0  1.1042
0.221  0  1.10741
0.222  0  1.1106
0.223  0  1.11378
0.224  0  1.11695
0.225  0  1.1201
0.226  0  1.12323
0.227  0  1.12635
0.228  0  1.12945
0.229  0  1.13254
0.23  0  1.13561
0.231  0  1.13867
0.232  0  1.14171
0.233  0  1.14474
0.234  0  1.14776
0.235  0  1.15075
0.236  0  1.15374
0.237  0  1.15671
0.238  0  1.15966
0.239  0  1.1626
0.24  0  1.16553
0.241  0  1.16844
0.242  0  1.17134
0.243  0  1.17422
0.244  0  1.17709
0.245  0  1.17994
0.246  0  1.18279
0.247  0  1.18561
0.248  0  1.18843
0.249  0  1.19123
0.25  0  1.19402
0.251  0  1.19679
0.252  0  1.19955
0.253  0  1.2023
0.254  0  1.20503
0.255  0  1.20776
0.256  0  1.21046
0.257  0  1.21316
0.258  0  1.21584
0.259  0  1.21851
0.26  0  1.22117
0.261  0  1.22382
0.262  0  1.22645
0.263  0  1.22907
0.264  0  1.23168
0.265  0  1.23428
0.266  0  1.23686
0.267  0  1.23943
0.268  0  1.24199
0.269  0  1.24454
0.27  0  1.24708
0.271  0  1.24961
0.272  0  1.25212
0.273  0  1.25462
0.274  0  1.25712
0.275  0  1.2596
0.276  0  1.26207
0.277  0  1.26453
0.278  0  1.26697
0.279  0  1.26941
0.28  0  1.27184
0.281  0  1.27425
0.282  0  1.27666
0.283  0  1.27905
0.284  0  1.28144
0.285  0  1.28381
0.286  0  1.28617
0.287  0  1.28853
0.288  0  1.29087
0.289  0  1.2932
0.29  0  1.29553
0.291  0  1.29784
0.292  0  1.30015
0.293  0  1.30244
0.294  0  1.30473
0.295  0  1.30701
0.296  0  1.30927
0.297  0  1.31153
0.298  0  1.31378
0.299  0  1.31602
0.3  0  1.31825
0.301  0  1.32047
0.302  0  1.32269
0.303  0  1.32489
0.304  0  1.32709
0.305  0  1.32928
0.306  0  1.33145
0.307  0  1.33363
0.308  0  1.33579
0.309  0  1.33794
0.31  0  1.34009
0.311  0  1.34223
0.312  0  1.34436
0.313  0  1.34648
0.314  0  1.3486
0.315  0  1.35071
0.316  0  1.35281
0.317  0  1.3549
0.318  0  1.35698
0.319  0  1.35906
0.32  0  1.36113
0.321  0  1.3632
0.322  0  1.36525
0.323  0  1.3673
0.324  0  1.36935
0.325  0  1.37138
0.326  0  1.37341
0.327  0  1.37544
0.328  0  1.37745
0.329  0  1.37946
0.33  0  1.38147
0.331  0  1.38346
0.332  0  1.38545
0.333  0  1.38744
0.334  0  1.38942
0.335  0  1.39139
0.336  0  1.39336
0.337  0  1.39532
0.338  0  1.39727
0.339  0  1.39922
0.34  0  1.40116
0.341  0  1.4031
0.342  0  1.40503
0.343  0  1.40696
0.344  0  1.40888
0.345  0  1.4108
0.346  0  1.41271
0.347  0  1.41462
0.348  0  1.41652
0.349  0  1.41841
0.35  0  1.42031
0.351  0  1.42219
0.352  0  1.42407
0.353  0  1.42595
0.354  0  1.42782
0.355  0  1.42969
0.356  0  1.43155
0.357  0  1.43341
0.358  0  1.43526
0.359  0  1.43711
0.36  0  1.43896
0.361  0  1.4408
0.362  0  1.44264
0.363  0  1.44447
0.364  0  1.4463
0.365  0  1.44812
0.366  0  1.44994
0.367  0  1.45176
0.368  0  1.45357
0.369  0  1.45538
0.37  0  1.45719
0.371  0  1.45899
0.372  0  1.46079
0.373  0  1.46258
0.374  0  1.46438
0.375  0  1.46616
0.376  0  1.46795
0.377  0  1.46973
0.378  0  1.47151
0.379  0  1.47328
0.38  0  1.47506
0.381  0  1.47683
0.382  0  1.47859
0.383  0  1.48035
0.384  0  1.48211
0.385  0  1.48387
0.386  0  1.48563
0.387  0  1.48738
0.388  0  1.48913
0.389  0  1.49087
0.39  0  1.49262
0.391  0  1.49436
0.392  0  1.4961
0.393  0  1.49783
0.394  0  1.49957
0.395  0  1.5013
0.396  0  1.50302
0.397  0  1.50475
0.398  0  1.50648
0.399  0  1.5082
0.4  0  1.50992
0.401  0  1.51163
0.402  0  1.51335
0.403  0  1.51506
0.404  0  1.51677
0.405  0  1.51848
0.406  0  1.52019
0.407  0  1.5219
0.408  0  1.5236
0.409  0  1.5253
0.41  0  1.527
0.411  0  1.5287
0.412  0  1.5304
0.413  0  1.53209
0.414  0  1.53378
0.415  0  1.53547
0.416  0  1.53716
0.417  0  1.53885
0.418  0  1.54054
0.419  0  1.54222
0.42  0  1.54391
0.421  0  1.54559
0.422  0  1.54727
0.423  0  1.54895
0.424  0  1.55063
0.425  0  1.5523
0.426  0  1.55398
0.427  0  1.55565
0.428  0  1.55733
0.429  0  1.559
0.43  0  1.56067
0.431  0  1.56234
0.432  0  1.564
0.433  0  1.56567
0.434  0  1.56734
0.435  0  1.569
0.436  0  1.57066
0.437  0  1.57233
0.438  0  1.57399
0.439  0  1.57565
0.44  0  1.57731
0.441  0  1.57896
0.442  0  1.58062
0.443  0  1.58228
0.444  0  1.58393
0.445  0  1.58559
0.446  0  1.58724
0.447  0  1.58889
0.448  0  1.59055
0.449  0  1.5922
0.45  0  1.59385
0.451  0  1.5955
0.452  0  1.59715
0.453  0  1.59879
0.454  0  1.60044
0.455  0  1.60209
0.456  0  1.60373
0.457  0  1.60538
0.458  0  1.60702
0.459  0  1.60866
0.46  0  1.6103
0.461  0  1.61195
0.462  0  1.61359
0.463  0  1.61523
0.464  0  1.61687
0.465  0  1.6185
0.466  0  1.62014
0.467  0  1.62178
0.468  0  1.62342
0.469  0  1.62505
0.47  0  1.62669
0.471  0  1.62832
0.472  0  1.62996
0.473  0  1.63159
0.474  0  1.63322
0.475  0  1.63485
0.476  0  1.63648
0.477  0  1.63811
0.478  0  1.63974
0.479  0  1.64137
0.48  0  1.643
0.481  0  1.64463
0.482  0  1.64625
0.483  0  1.64788
0.484  0  1.6495
0.485  0  1.65113
0.486  0  1.65275
0.487  0  1.65437
0.488  0  1.65599
0.489  0  1.65762
0.49  0  1.65924
0.491  0  1.66085
0.492  0  1.66247
0.493  0  1.66409
0.494  0  1.66571
0.495  0  1.66732
0.496  0  1.66894
0.497  0  1.67055
0.498  0  1.67217
0.499  0  1.67378
0.5  0  1.67539
0.501  0  1.677
0.502  0  1.67861
0.503  0  1.68022
0.504  0  1.68182
0.505  0  1.68343
0.506  0  1.68503
0.507  0  1.68664
0.508  0  1.68824
0.509  0  1.68984
0.51  0  1.69144
0.511  0  1.69304
0.512  0  1.69464
0.513  0  1.69624
0.514  0  1.69783
0.515  0  1.69942
0.516  0  1.70102
0.517  0  1.70261
0.518  0  1.7042
0.519  0  1.70579
0.52  0  1.70737
0.521  0  1.70896
0.522  0  1.71054
0.523  0  1.71212
0.524  0  1.7137
0.525  0  1.71528
0.526  0  1.71686
0.527  0  1.71844
0.528  0  1.72001
0.529  0  1.72158
0.53  0  1.72315
0.531  0  1.72472
0.532  0  1.72628
0.533  0  1.72785
0.534  0  1.72941
0.535  0  1.73097
0.536  0  1.73253
0.537  0  1.73408
0.538  0  1.73564
0.539  0  1.73719
0.54  0  1.73874
0.541  0  1.74028
0.542  0  1.74183
0.543  0  1.74337
0.544  0  1.74491
0.545  0  1.74644
0.546  0  1.74798
0.547  0  1.74951
0.548  0  1.75104
0.549  0  1.75256
0.55  0  1.75408
0.551  0  1.7556
0.552  0  1.75712
0.553  0  1.75863
0.554  0  1.76014
0.555  0  1.76165
0.556  0  1.76315
0.557  0  1.76465
0.558  0  1.76615
0.559  0  1.76764
0.56  0  1.76913
0.561  0  1.77062
0.562  0  1.7721
0.563  0  1.77358
0.564  0  1.77506
0.565  0  1.77653
0.566  0  1.77799
0.567  0  1.77946
0.568  0  1.78092
0.569  0  1.78237
0.57  0  1.78382
0.571  0  1.78527
0.572  0  1.78671
0.573  0  1.78815
0.574  0  1.78958
0.575  0  1.79101
0.576  0  1.79243
0.577  0  1.79385
0.578  0  1.79526
0.579  0  1.79667
0.58  0  1.79807
0.581  0  1.79947
0.582  0  1.80086
0.583  0  1.80225
0.584  0  1.80363
0.585  0  1.80501
0.586  0  1.80638
0.587  0  1.80774
0.588  0  1.8091
0.589  0  1.81045
0.59  0  1.8118
0.591  0  1.81314
0.592  0  1.81447
0.593  0  1.8158
0.594  0  1.81712
0.595  0  1.81843
0.596  0  1.81974
0.597  0  1.82104
0.598  0  1.82233
0.599  0  1.82362
0.6  0  1.8249
0.601  0  1.82617
0.602  0  1.82743
0.603  0  1.82869
0.604  0  1.82994
0.605  0  1.83118
0.606  0  1.83241
0.607  0  1.83364
0.608  0  1.83485
0.609  0  1.83606
0.61  0  1.83726
0.611  0  1.83845
0.612  0  1.83964
0.613  0  1.84081
0.614  0  1.84198
0.615  0  1.84313
0.616  0  1.84428
0.617  0  1.84541
0.618  0  1.84654
0.619  0  1.84766
0.62  0  1.84877
0.621  0  1.84987
0.622  0  1.85095
0.623  0  1.85203
0.624  0  1.8531
0.625  0  1.85415
0.626  0  1.8552
0.627  0  1.85624
0.628  0  1.85726
0.629  0  1.85827
0.63  0  1.85928
0.631  0  1.86027
0.632  0  1.86124
0.633  0  1.86221
0.634  0  1.86317
0.635  0  1.86411
0.636  0  1.86504
0.637  0  1.86596
0.638  0  1.86686
0.639  0  1.86776
0.64  0  1.86864
0.641  0  1.8695
0.642  0  1.87036
0.643  0  1.8712
0.644  0  1.87202
0.645  0  1.87284
0.646  0  1.87364
0.647  0  1.87442
0.648  0  1.87519
0.649  0  1.87595
0.65  0  1.87669
0.651  0  1.87741
0.652  0  1.87813
0.653  0  1.87882
0.654  0  1.8795
0.655  0  1.88017
0.656  0  1.88082
0.657  0  1.88145
0.658  0  1.88207
0.659  0  1.88267
0.66  0  1.88325
0.661  0  1.88382
0.662  0  1.88437
0.663  0  1.8849
0.664  0  1.88542
0.665  0  1.88592
0.666  0  1.8864
0.667  0  1.88686
0.668  0  1.88731
0.669  0  1.88773
0.67  0  1.88814
0.671  0  1.88853
0.672  0  1.8889
0.673  0  1.88925
0.674  0  1.88958
0.675  0  1.8899
0.676  0  1.89019
0.677  0  1.89046
0.678  0  1.89071
0.679  0  1.89094
0.68  0  1.89115
0.681  0  1.89134
0.682  0  1.89151
0.683  0  1.89166
0.684  0  1.89179
0.685  0  1.89189
0.686  0  1.89197
0.687  0  1.89203
0.688  0  1.89207
0.689  0  1.89208
0.69  0  1.89208
0.691  0  1.89205
0.692  0  1.89199
0.693  0  1.89191
0.694  0  1.89181
0.695  0  1.89168
0.696  0  1.89153
0.697  0  1.89136
0.698  0  1.89116
0.699  0  1.89094
0.7  0  1.89069
0.701  0  1.89041
0.702  0  1.89011
0.703  0  1.88978
0.704  0  1.88943
0.705  0  1.88905
0.706  0  1.88865
0.707  0  1.88821
0.708  0  1.88775
0.709  0  1.88727
0.71  0  1.88675
0.711  0  1.88621
0.712  0  1.88564
0.713  0  1.88504
0.714  0  1.88441
0.715  0  1.88376
0.716  0  1.88307
0.717  0  1.88236
0.718  0  1.88161
0.719  0  1.88084
0.72  0  1.88003
0.721  0  1.8792
0.722  0  1.87833
0.723  0  1.87744
0.724  0  1.87651
0.725  0  1.87556
0.726  0  1.87457
0.727  0  1.87355
0.728  0  1.87249
0.729  0  1.87141
0.73  0  1.87029
0.731  0  1.86914
0.732  0  1.86796
0.733  0  1.86674
0.734  0  1.86549
0.735  0  1.86421
0.736  0  1.86289
0.737  0  1.86154
0.738  0  1.86015
0.739  0  1.85873
0.74  0  1.85728
0.741  0  1.85579
0.742  0  1.85426
0.743  0  1.8527
0.744  0  1.8511
0.745  0  1.84947
0.746  0  1.8478
0.747  0  1.84609
0.748  0  1.84435
0.749  0  1.84257
0.75  0  1.84075
0.751  0  1.8389
0.752  0  1.837
0.753  0  1.83507
0.754  0  1.8331
0.755  0  1.83109
0.756  0  1.82905
0.757  0  1.82696
0.758  0  1.82484
0.759  0  1.82267
0.76  0  1.82047
0.761  0  1.81823
0.762  0  1.81594
0.763  0  1.81362
0.764  0  1.81126
0.765  0  1.80885
0.766  0  1.8064
0.767  0  1.80392
0.768  0  1.80139
0.769  0  1.79882
0.77  0  1.7962
0.771  0  1.79355
0.772  0  1.79085
0.773  0  1.78811
0.774  0  1.78533
0.775  0  1.78251
0.776  0  1.77964
0.777  0  1.77673
0.778  0  1.77377
0.779  0  1.77077
0.78  0  1.76773
0.781  0  1.76464
0.782  0  1.76151
0.783  0  1.75834
0.784  0  1.75512
0.785  0  1.75185
0.786  0  1.74854
0.787  0  1.74519
0.788  0  1.74179
0.789  0  1.73834
0.79  0  1.73485
0.791  0  1.73131
0.792  0  1.72772
0.793  0  1.72409
0.794  0  1.72041
0.795  0  1.71669
0.796  0  1.71292
0.797  0  1.7091
0.798  0  1.70523
0.799  0  1.70132
0.8  0  1.69736
0.801  0  1.69335
0.802  0  1.6893
0.803  0  1.68519
0.804  0  1.68104
0.805  0  1.67684
0.806  0  1.67259
0.807  0  1.6683
0.808  0  1.66395
0.809  0  1.65956
0.81  0  1.65511
0.811  0  1.65062
0.812  0  1.64608
0.813  0  1.64149
0.814  0  1.63685
0.815  0  1.63216
0.816  0  1.62742
0.817  0  1.62263
0.818  0  1.61779
0.819  0  1.61291
0.82  0  1.60797
0.821  0  1.60298
0.822  0  1.59794
0.823  0  1.59285
0.824  0  1.58771
0.825  0  1.58252
0.826  0  1.57728
0.827  0  1.57199
0.828  0  1.56665
0.829  0  1.56126
0.83  0  1.55582
0.831  0  1.55032
0.832  0  1.54478
0.833  0  1.53918
0.834  0  1.53354
0.835  0  1.52784
0.836  0  1.52209
0.837  0  1.51629
0.838  0  1.51044
0.839  0  1.50454
0.84  0  1.49859
0.841  0  1.49258
0.842  0  1.48653
0.843  0  1.48042
0.844  0  1.47427
0.845  0  1.46806
0.846  0  1.4618
0.847  0  1.45549
0.848  0  1.44913
0.849  0  1.44271
0.85  0  1.43625
0.851  0  1.42974
0.852  0  1.42317
0.853  0  1.41655
0.854  0  1.40989
0.855  0  1.40317
0.856  0  1.3964
0.857  0  1.38958
0.858  0  1.38271
0.859  0  1.37578
0.86  0  1.36881
0.861  0  1.36179
0.862  0  1.35472
0.863  0  1.34759
0.864  0  1.34042
0.865  0  1.33319
0.866  0  1.32592
0.867  0  1.3186
0.868  0  1.31122
0.869  0  1.3038
0.87  0  1.29633
0.871  0  1.2888
0.872  0  1.28123
0.873  0  1.27361
0.874  0  1.26594
0.875  0  1.25822
0.876  0  1.25045
0.877  0  1.24263
0.878  0  1.23476
0.879  0  1.22685
0.88  0  1.21888
0.881  0  1.21087
0.882  0  1.20281
0.883  0  1.19471
0.884  0  1.18655
0.885  0  1.17835
0.886  0  1.1701
0.887  0  1.1618
0.888  0  1.15346
0.889  0  1.14507
0.89  0  1.13664
0.891  0  1.12815
0.892  0  1.11962
0.893  0  1.11105
0.894  0  1.10243
0.895  0  1.09376
0.896  0  1.08505
0.897  0  1.0763
0.898  0  1.0675
0.899  0  1.05865
0.9  0  1.04977
0.901  0  1.04083
0.902  0  1.03186
0.903  0  1.02284
0.904  0  1.01378
0.905  0  1.00467
0.906  0  0.995525
0.907  0  0.986335
0.908  0  0.977104
0.909  0  0.967831
0.91  0  0.958516
0.911  0  0.949161
0.912  0  0.939765
0.913  0  0.930328
0.914  0  0.920851
0.915  0  0.911335
0.916  0  0.901779
0.917  0  0.892184
0.918  0  0.88255
0.919  0  0.872878
0.92  0  0.863168
0.921  0  0.85342
0.922  0  0.843635
0.923  0  0.833812
0.924  0  0.823953
0.925  0  0.814058
0.926  0  0.804127
0.927  0  0.79416
0.928  0  0.784158
0.929  0  0.774121
0.93  0  0.76405
0.931  0  0.753944
0.932  0  0.743805
0.933  0  0.733633
0.934  0  0.723428
0.935  0  0.71319
0.936  0  0.702921
0.937  0  0.69262
0.938  0  0.682287
0.939  0  0.671924
0.94  0  0.661531
0.941  0  0.651107
0.942  0  0.640654
0.943  0  0.630172
0.944  0  0.619661
0.945  0  0.609122
0.946  0  0.598555
0.947  0  0.587961
0.948  0  0.57734
0.949  0  0.566693
0.95  0  0.556019
0.951  0  0.54532
0.952  0  0.534596
0.953  0  0.523847
0.954  0  0.513075
0.955  0  0.502278
0.956  0  0.491459
0.957  0  0.480616
0.958  0  0.469752
0.959  0  0.458865
0.96  0  0.447958
0.961  0  0.437029
0.962  0  0.426081
0.963  0  0.415112
0.964  0  0.404124
0.965  0  0.393118
0.966  0  0.382093
0.967  0  0.37105
0.968  0  0.35999
0.969  0  0.348913
0.97  0  0.337819
0.971  0  0.32671
0.972  0  0.315586
0.973  0  0.304447
0.974  0  0.293293
0.975  0  0.282126
0.976  0  0.270945
0.977  0  0.259752
0.978  0  0.248546
0.979  0  0.237329
0.98  0  0.226101
0.981  0  0.214862
0.982  0  0.203613
0.983  0  0.192354
0.984  0  0.181086
0.985  0  0.16981
0.986  0  0.158525
0.987  0  0.147233
0.988  0  0.135934
0.989  0  0.124629
0.99  0  0.113318
0.991  0  0.102002
0.992  0  0.0906802
0.993  0  0.0793546
0.994  0  0.0680252
0.995  0  0.0566926
0.996  0  0.0453573
0.997  0  0.0340198
0.998  0  0.0226808
0.999  0  0.0113407
1  0  1.22465e-23
